REMARK  Name = vina_results\candidate_01\ligand.pdb
REMARK  22 active torsions:
REMARK  status: ('A' for Active; 'I' for Inactive)
REMARK    1  A    between atoms: O1_1  and  C1_2
REMARK    2  A    between atoms: C3_5  and  C4_6
REMARK    3  A    between atoms: C6_8  and  O3_9
REMARK    4  A    between atoms: O3_9  and  C7_10
REMARK    5  A    between atoms: C7_10  and  C8_12
REMARK    6  A    between atoms: C14_18  and  O5_19
REMARK    7  A    between atoms: C15_20  and  C16_21
REMARK    8  A    between atoms: C15_20  and  C17_22
REMARK    9  A    between atoms: C19_24  and  C20_25
REMARK   10  A    between atoms: C21_26  and  O6_27
REMARK   11  A    between atoms: O6_27  and  C22_28
REMARK   12  A    between atoms: C22_28  and  C23_30
REMARK   13  A    between atoms: C23_30  and  O8_31
REMARK   14  A    between atoms: C23_30  and  C24_32
REMARK   15  A    between atoms: C24_32  and  C25_33
REMARK   16  A    between atoms: C24_32  and  N1_39
REMARK   17  A    between atoms: C31_40  and  C32_42
REMARK   18  A    between atoms: C32_42  and  C33_43
REMARK   19  A    between atoms: C35_45  and  O10_46
REMARK   20  A    between atoms: O10_46  and  C36_47
REMARK   21  A    between atoms: C36_47  and  C37_49
REMARK   22  A    between atoms: C41_54  and  O13_55
REMARK                            x       y       z     vdW  Elec       q    Type
REMARK                         _______ _______ _______ _____ _____    ______ ____
ROOT
ATOM      1  C1  UNL     1      -0.795   1.332   0.338  0.00  0.00    +0.000 C 
ATOM      2  C2  UNL     1       0.614   0.912   0.892  0.00  0.00    +0.000 C 
ATOM      3  O2  UNL     1       0.762   0.888   2.138  0.00  0.00    +0.000 OA
ATOM      4  C3  UNL     1       1.829   0.543  -0.005  0.00  0.00    +0.000 C 
ATOM      5  C4  UNL     1       1.421  -0.501  -1.049  0.00  0.00    +0.000 C 
ATOM      6  C5  UNL     1       2.554   1.761  -0.602  0.00  0.00    +0.000 C 
ATOM      7  C6  UNL     1       2.094   3.240  -0.533  0.00  0.00    +0.000 C 
ATOM      8  C14 UNL     1       0.971   3.869  -1.422  0.00  0.00    +0.000 C 
ATOM      9  C15 UNL     1      -0.307   3.021  -1.805  0.00  0.00    +0.000 C 
ATOM     10  C16 UNL     1      -0.985   3.962  -2.927  0.00  0.00    +0.000 C 
ATOM     11  C17 UNL     1      -0.351   1.748  -2.644  0.00  0.00    +0.000 C 
ATOM     12  C18 UNL     1      -0.919   2.706  -0.371  0.00  0.00    +0.000 C 
ATOM     13  C19 UNL     1      -1.242   3.779   0.395  0.00  0.00    +0.000 C 
ATOM     14  C20 UNL     1      -1.509   3.701   1.881  0.00  0.00    +0.000 C 
ATOM     15  C21 UNL     1      -1.022   5.109  -0.260  0.00  0.00    +0.000 C 
ATOM     16  C34 UNL     1       0.451   5.208  -0.718  0.00  0.00    +0.000 C 
ATOM     17  C35 UNL     1       3.609   1.407  -1.695  0.00  0.00    +0.000 C 
ATOM     18  C38 UNL     1       4.276   0.172  -2.491  0.00  0.00    +0.000 C 
ATOM     19  O12 UNL     1       5.530   0.383  -1.788  0.00  0.00    +0.000 OA
ATOM     20  C39 UNL     1       4.770   0.970  -0.714  0.00  0.00    +0.000 C 
ATOM     21  C40 UNL     1       4.355  -0.207   0.264  0.00  0.00    +0.000 C 
ATOM     22  C41 UNL     1       2.958  -0.077   0.937  0.00  0.00    +0.000 C 
ENDROOT
BRANCH   1  23
ATOM     23  O1  UNL     1      -1.682   0.362  -0.179  0.00  0.00    +0.000 OA
ATOM     24  H1  UNL     1      -1.575   0.232  -1.119  0.00  0.00    +0.000 HD
ENDBRANCH   1  23
BRANCH   8  25
ATOM     25  O5  UNL     1       1.623   4.339  -2.623  0.00  0.00    +0.000 OA
ATOM     26  H13 UNL     1       2.229   5.062  -2.362  0.00  0.00    +0.000 HD
ENDBRANCH   8  25
BRANCH  22  27
ATOM     27  O13 UNL     1       2.554  -1.371   1.386  0.00  0.00    +0.000 OA
ATOM     28  H49 UNL     1       2.951  -1.507   2.265  0.00  0.00    +0.000 HD
ENDBRANCH  22  27
BRANCH   7  29
ATOM     29  O3  UNL     1       1.964   3.569   0.893  0.00  0.00    +0.000 OA
BRANCH  29  30
ATOM     30  C7  UNL     1       3.137   3.988   1.470  0.00  0.00    +0.000 C 
ATOM     31  O4  UNL     1       4.197   4.162   0.894  0.00  0.00    +0.000 OA
BRANCH  30  32
ATOM     32  C8  UNL     1       3.062   4.117   2.933  0.00  0.00    +0.000 A 
ATOM     33  C9  UNL     1       4.003   4.942   3.565  0.00  0.00    +0.000 A 
ATOM     34  C10 UNL     1       4.123   4.918   4.945  0.00  0.00    +0.000 A 
ATOM     35  C11 UNL     1       3.296   4.083   5.699  0.00  0.00    +0.000 A 
ATOM     36  C12 UNL     1       2.318   3.313   5.076  0.00  0.00    +0.000 A 
ATOM     37  C13 UNL     1       2.185   3.345   3.693  0.00  0.00    +0.000 A 
ENDBRANCH  30  32
ENDBRANCH  29  30
ENDBRANCH   7  29
BRANCH  15  38
ATOM     38  O6  UNL     1      -1.618   6.167   0.452  0.00  0.00    +0.000 OA
BRANCH  38  39
ATOM     39  C22 UNL     1      -0.902   6.769   1.404  0.00  0.00    +0.000 C 
ATOM     40  O7  UNL     1       0.313   6.920   1.435  0.00  0.00    +0.000 OA
BRANCH  39  41
ATOM     41  C23 UNL     1      -1.843   7.086   2.546  0.00  0.00    +0.000 C 
BRANCH  41  42
ATOM     42  O8  UNL     1      -3.232   6.907   2.264  0.00  0.00    +0.000 OA
ATOM     43  H25 UNL     1      -3.313   6.074   1.764  0.00  0.00    +0.000 HD
ENDBRANCH  41  42
BRANCH  41  44
ATOM     44  C24 UNL     1      -1.489   8.492   2.994  0.00  0.00    +0.000 C 
BRANCH  44  45
ATOM     45  C25 UNL     1      -1.624   9.542   1.915  0.00  0.00    +0.000 A 
ATOM     46  C26 UNL     1      -2.871  10.155   1.762  0.00  0.00    +0.000 A 
ATOM     47  C27 UNL     1      -2.976  11.337   1.041  0.00  0.00    +0.000 A 
ATOM     48  C28 UNL     1      -1.859  11.851   0.385  0.00  0.00    +0.000 A 
ATOM     49  C29 UNL     1      -0.657  11.151   0.385  0.00  0.00    +0.000 A 
ATOM     50  C30 UNL     1      -0.537   9.996   1.151  0.00  0.00    +0.000 A 
ENDBRANCH  44  45
BRANCH  44  51
ATOM     51  N1  UNL     1      -0.157   8.508   3.594  0.00  0.00    +0.000 N 
ATOM     52  C31 UNL     1      -0.032   8.156   4.911  0.00  0.00    +0.000 C 
ATOM     53  O9  UNL     1      -1.000   7.933   5.628  0.00  0.00    +0.000 OA
ATOM     54  H32 UNL     1       0.612   8.243   2.982  0.00  0.00    +0.000 HD
BRANCH  52  55
ATOM     55  C32 UNL     1       1.398   8.052   5.370  0.00  0.00    +0.000 C 
ATOM     56  C33 UNL     1       1.409   7.815   6.866  0.00  0.00    +0.000 C 
ENDBRANCH  52  55
ENDBRANCH  44  51
ENDBRANCH  41  44
ENDBRANCH  39  41
ENDBRANCH  38  39
ENDBRANCH  15  38
BRANCH  17  57
ATOM     57  O10 UNL     1       3.454   2.403  -2.724  0.00  0.00    +0.000 OA
BRANCH  57  58
ATOM     58  C36 UNL     1       4.447   3.228  -3.094  0.00  0.00    +0.000 C 
ATOM     59  O11 UNL     1       5.422   3.531  -2.408  0.00  0.00    +0.000 OA
ATOM     60  C37 UNL     1       4.157   3.724  -4.483  0.00  0.00    +0.000 C 
ENDBRANCH  57  58
ENDBRANCH  17  57
TORSDOF 16
