ROOT
ATOM      1 O1   UNL     1      -1.411  -3.933   3.640   0.000  O
ATOM      2 C1   UNL     1      -0.347  -3.604   2.788   0.000  C
ATOM      3 C2   UNL     1      -0.632  -3.813   1.274   0.000  C
ATOM      4 O2   UNL     1       0.161  -4.529   0.642   0.000  O
ATOM      5 C3   UNL     1      -1.799  -3.066   0.524   0.000  C
ATOM      6 C4   UNL     1      -3.121  -3.287   1.283   0.000  C
ATOM      7 C5   UNL     1      -1.392  -1.512   0.311   0.000  C
ATOM      8 C6   UNL     1      -1.880  -0.486   1.443   0.000  C
ATOM      9 O3   UNL     1      -2.344   0.776   0.849   0.000  O
ATOM     10 C7   UNL     1      -3.681   1.020   0.845   0.000  C
ATOM     11 O4   UNL     1      -4.551   0.233   1.178   0.000  O
ATOM     12 C8   UNL     1      -3.957   2.378   0.310   0.000  C
ATOM     13 C9   UNL     1      -2.965   3.363   0.219   0.000  C
ATOM     14 C10  UNL     1      -3.276   4.624  -0.296   0.000  C
ATOM     15 C11  UNL     1      -4.575   4.905  -0.718   0.000  C
ATOM     16 C12  UNL     1      -5.568   3.931  -0.621   0.000  C
ATOM     17 C13  UNL     1      -5.262   2.671  -0.106   0.000  C
ATOM     18 C14  UNL     1      -0.842  -0.011   2.573   0.000  C
ATOM     19 O5   UNL     1      -1.463   1.120   3.241   0.000  O
ATOM     20 C15  UNL     1      -0.571  -1.084   3.676   0.000  C
ATOM     21 C16  UNL     1      -1.871  -1.431   4.453   0.000  C
ATOM     22 C17  UNL     1       0.314  -0.514   4.841   0.000  C
ATOM     23 C18  UNL     1       0.215  -2.204   2.971   0.000  C
ATOM     24 C19  UNL     1       1.373  -1.857   2.334   0.000  C
ATOM     25 C20  UNL     1       2.399  -2.841   1.812   0.000  C
ATOM     26 C21  UNL     1       1.707  -0.399   2.035   0.000  C
ATOM     27 O6   UNL     1       2.330  -0.341   0.730   0.000  O
ATOM     28 C22  UNL     1       3.560   0.236   0.667   0.000  C
ATOM     29 O7   UNL     1       4.185   0.710   1.611   0.000  O
ATOM     30 C23  UNL     1       4.170   0.109  -0.728   0.000  C
ATOM     31 O8   UNL     1       5.502   0.668  -0.738   0.000  O
ATOM     32 C24  UNL     1       3.287   0.780  -1.810   0.000  C
ATOM     33 C25  UNL     1       3.473   0.147  -3.184   0.000  C
ATOM     34 C26  UNL     1       4.743  -0.014  -3.763   0.000  C
ATOM     35 C27  UNL     1       4.884  -0.590  -5.027   0.000  C
ATOM     36 C28  UNL     1       3.759  -1.005  -5.736   0.000  C
ATOM     37 C29  UNL     1       2.492  -0.843  -5.182   0.000  C
ATOM     38 C30  UNL     1       2.349  -0.270  -3.917   0.000  C
ATOM     39 N1   UNL     1       3.535   2.218  -1.914   0.000  N
ATOM     40 C31  UNL     1       3.016   3.103  -0.998   0.000  C
ATOM     41 O9   UNL     1       2.190   2.774  -0.153   0.000  O
ATOM     42 C32  UNL     1       3.554   4.509  -1.158   0.000  C
ATOM     43 C33  UNL     1       2.940   5.476  -0.162   0.000  C
ATOM     44 C34  UNL     1       0.484   0.543   1.981   0.000  C
ATOM     45 C35  UNL     1      -1.686  -0.942  -1.131   0.000  C
ATOM     46 O10  UNL     1      -0.921   0.304  -1.258   0.000  O
ATOM     47 C36  UNL     1      -1.084   1.090  -2.360   0.000  C
ATOM     48 O11  UNL     1      -1.689   0.792  -3.377   0.000  O
ATOM     49 C37  UNL     1      -0.368   2.393  -2.189   0.000  C
ATOM     50 C38  UNL     1      -3.165  -0.940  -1.599   0.000  C
ATOM     51 O12  UNL     1      -2.884  -1.873  -2.669   0.000  O
ATOM     52 C39  UNL     1      -1.482  -1.938  -2.302   0.000  C
ATOM     53 C40  UNL     1      -1.075  -3.355  -1.963   0.000  C
ATOM     54 C41  UNL     1      -1.939  -3.885  -0.828   0.000  C
ATOM     55 O13  UNL     1      -3.305  -4.022  -1.245   0.000  O
ENDROOT